variables=t,acc,Vel,displ
zone
    0.000000E+00    0.282095E-02    0.000000E+00    0.150000E+01
    0.900901E-02    0.356736E-02    0.286698E-04    0.150000E+01
    0.180180E-01    0.449298E-02    0.648499E-04    0.150000E+01
    0.270270E-01    0.563588E-02    0.110120E-03    0.150000E+01
    0.360360E-01    0.704086E-02    0.167340E-03    0.150000E+01
    0.450450E-01    0.876045E-02    0.238031E-03    0.150000E+01
    0.540541E-01    0.108559E-01    0.326097E-03    0.150001E+01
    0.630631E-01    0.133981E-01    0.434965E-03    0.150001E+01
    0.720721E-01    0.164686E-01    0.569135E-03    0.150001E+01
    0.810811E-01    0.201608E-01    0.733703E-03    0.150002E+01
    0.900901E-01    0.245809E-01    0.934601E-03    0.150003E+01
    0.990991E-01    0.298487E-01    0.117904E-02    0.150004E+01
    0.108108E+00    0.360985E-01    0.147536E-02    0.150005E+01
    0.117117E+00    0.434802E-01    0.183281E-02    0.150006E+01
    0.126126E+00    0.521593E-01    0.226280E-02    0.150008E+01
    0.135135E+00    0.623173E-01    0.277716E-02    0.150011E+01
    0.144144E+00    0.741522E-01    0.339061E-02    0.150013E+01
    0.153153E+00    0.878772E-01    0.411889E-02    0.150017E+01
    0.162162E+00    0.103721E+00    0.498030E-02    0.150021E+01
    0.171171E+00    0.121925E+00    0.599480E-02    0.150026E+01
    0.180180E+00    0.142744E+00    0.718498E-02    0.150032E+01
    0.189189E+00    0.166442E+00    0.857544E-02    0.150039E+01
    0.198198E+00    0.193287E+00    0.101933E-01    0.150047E+01
    0.207207E+00    0.223553E+00    0.120683E-01    0.150057E+01
    0.216216E+00    0.257511E+00    0.142325E-01    0.150069E+01
    0.225225E+00    0.295426E+00    0.167201E-01    0.150083E+01
    0.234234E+00    0.337551E+00    0.195680E-01    0.150099E+01
    0.243243E+00    0.384121E+00    0.228153E-01    0.150118E+01
    0.252252E+00    0.435346E+00    0.265031E-01    0.150140E+01
    0.261261E+00    0.491403E+00    0.306740E-01    0.150166E+01
    0.270270E+00    0.552432E+00    0.353722E-01    0.150196E+01
    0.279279E+00    0.618526E+00    0.406429E-01    0.150230E+01
    0.288288E+00    0.689722E+00    0.465320E-01    0.150269E+01
    0.297297E+00    0.765998E+00    0.530856E-01    0.150314E+01
    0.306306E+00    0.847265E+00    0.603489E-01    0.150365E+01
    0.315315E+00    0.933358E+00    0.683661E-01    0.150423E+01
    0.324324E+00    0.102403E+01    0.771799E-01    0.150489E+01
    0.333333E+00    0.111897E+01    0.868301E-01    0.150562E+01
    0.342342E+00    0.121776E+01    0.973532E-01    0.150645E+01
    0.351351E+00    0.131990E+01    0.108782E+00    0.150738E+01
    0.360360E+00    0.142481E+01    0.121143E+00    0.150842E+01
    0.369369E+00    0.153183E+01    0.134460E+00    0.150957E+01
    0.378378E+00    0.164023E+01    0.148748E+00    0.151084E+01
    0.387387E+00    0.174918E+01    0.164016E+00    0.151225E+01
    0.396396E+00    0.185781E+01    0.180264E+00    0.151380E+01
    0.405405E+00    0.196519E+01    0.197486E+00    0.151550E+01
    0.414414E+00    0.207037E+01    0.215666E+00    0.151736E+01
    0.423423E+00    0.217234E+01    0.234780E+00    0.151939E+01
    0.432432E+00    0.227010E+01    0.254795E+00    0.152159E+01
    0.441441E+00    0.236266E+01    0.275667E+00    0.152398E+01
    0.450450E+00    0.244903E+01    0.297347E+00    0.152656E+01
    0.459459E+00    0.252827E+01    0.319772E+00    0.152934E+01
    0.468468E+00    0.259951E+01    0.342877E+00    0.153233E+01
    0.477477E+00    0.266193E+01    0.366584E+00    0.153552E+01
    0.486486E+00    0.271482E+01    0.390811E+00    0.153893E+01
    0.495496E+00    0.275754E+01    0.415469E+00    0.154257E+01
    0.504505E+00    0.278958E+01    0.440464E+00    0.154642E+01
    0.513514E+00    0.281058E+01    0.465699E+00    0.155050E+01
    0.522523E+00    0.282026E+01    0.491071E+00    0.155481E+01
    0.531532E+00    0.281851E+01    0.516480E+00    0.155935E+01
    0.540541E+00    0.280536E+01    0.541821E+00    0.156412E+01
    0.549550E+00    0.278096E+01    0.566993E+00    0.156911E+01
    0.558559E+00    0.274561E+01    0.591896E+00    0.157433E+01
    0.567568E+00    0.269973E+01    0.616432E+00    0.157978E+01
    0.576577E+00    0.264386E+01    0.640509E+00    0.158544E+01
    0.585586E+00    0.257867E+01    0.664041E+00    0.159132E+01
    0.594595E+00    0.250489E+01    0.686946E+00    0.159740E+01
    0.603604E+00    0.242338E+01    0.709151E+00    0.160369E+01
    0.612613E+00    0.233502E+01    0.730590E+00    0.161018E+01
    0.621622E+00    0.224077E+01    0.751206E+00    0.161685E+01
    0.630631E+00    0.214162E+01    0.770949E+00    0.162371E+01
    0.639640E+00    0.203856E+01    0.789782E+00    0.163074E+01
    0.648649E+00    0.193261E+01    0.807672E+00    0.163794E+01
    0.657658E+00    0.182474E+01    0.824598E+00    0.164529E+01
    0.666667E+00    0.171591E+01    0.840547E+00    0.165279E+01
    0.675676E+00    0.160704E+01    0.855515E+00    0.166043E+01
    0.684685E+00    0.149899E+01    0.869505E+00    0.166820E+01
    0.693694E+00    0.139253E+01    0.882528E+00    0.167610E+01
    0.702703E+00    0.128840E+01    0.894603E+00    0.168410E+01
    0.711712E+00    0.118723E+01    0.905752E+00    0.169221E+01
    0.720721E+00    0.108957E+01    0.916005E+00    0.170042E+01
    0.729730E+00    0.995890E+00    0.925395E+00    0.170871E+01
    0.738739E+00    0.906582E+00    0.933962E+00    0.171709E+01
    0.747748E+00    0.821940E+00    0.941744E+00    0.172554E+01
    0.756757E+00    0.742182E+00    0.948786E+00    0.173406E+01
    0.765766E+00    0.667450E+00    0.955132E+00    0.174263E+01
    0.774775E+00    0.597812E+00    0.960828E+00    0.175126E+01
    0.783784E+00    0.533271E+00    0.965919E+00    0.175994E+01
    0.792793E+00    0.473772E+00    0.970451E+00    0.176867E+01
    0.801802E+00    0.419206E+00    0.974470E+00    0.177743E+01
    0.810811E+00    0.369423E+00    0.978019E+00    0.178622E+01
    0.819820E+00    0.324233E+00    0.981140E+00    0.179505E+01
    0.828829E+00    0.283419E+00    0.983874E+00    0.180390E+01
    0.837838E+00    0.246739E+00    0.986259E+00    0.181277E+01
    0.846847E+00    0.213936E+00    0.988331E+00    0.182167E+01
    0.855856E+00    0.184743E+00    0.990125E+00    0.183058E+01
    0.864865E+00    0.158888E+00    0.991670E+00    0.183951E+01
    0.873874E+00    0.136097E+00    0.992997E+00    0.184845E+01
    0.882883E+00    0.116104E+00    0.994131E+00    0.185740E+01
    0.891892E+00    0.986462E-01    0.995096E+00    0.186636E+01
    0.900901E+00    0.834743E-01    0.995915E+00    0.187533E+01
    0.909910E+00    0.703497E-01    0.996606E+00    0.188430E+01
    0.918919E+00    0.590486E-01    0.997188E+00    0.189329E+01
    0.927928E+00    0.493621E-01    0.997675E+00    0.190227E+01
    0.936937E+00    0.410976E-01    0.998082E+00    0.191126E+01
    0.945946E+00    0.340782E-01    0.998420E+00    0.192025E+01
    0.954955E+00    0.281432E-01    0.998699E+00    0.192925E+01
    0.963964E+00    0.231478E-01    0.998929E+00    0.193825E+01
    0.972973E+00    0.189619E-01    0.999118E+00    0.194725E+01
    0.981982E+00    0.154700E-01    0.999273E+00    0.195625E+01
    0.990991E+00    0.125701E-01    0.999399E+00    0.196525E+01
    0.100000E+01    0.101724E-01    0.999501E+00    0.197426E+01
    0.100901E+01    0.819876E-02    0.999584E+00    0.198326E+01
    0.101802E+01    0.658125E-02    0.999650E+00    0.199227E+01
    0.102703E+01    0.526147E-02    0.999703E+00    0.200127E+01
    0.103604E+01    0.418931E-02    0.999746E+00    0.201028E+01
    0.104505E+01    0.332213E-02    0.999779E+00    0.201929E+01
    0.105405E+01    0.262378E-02    0.999806E+00    0.202830E+01
    0.106306E+01    0.206384E-02    0.999827E+00    0.203730E+01
    0.107207E+01    0.161682E-02    0.999843E+00    0.204631E+01
    0.108108E+01    0.126150E-02    0.999856E+00    0.205532E+01
    0.109009E+01    0.980273E-03    0.999866E+00    0.206433E+01
    0.109910E+01    0.758655E-03    0.999874E+00    0.207333E+01
    0.110811E+01    0.584765E-03    0.999880E+00    0.208234E+01
    0.111712E+01    0.448905E-03    0.999885E+00    0.209135E+01
    0.112613E+01    0.343215E-03    0.999888E+00    0.210036E+01
    0.113514E+01    0.261346E-03    0.999891E+00    0.210937E+01
    0.114414E+01    0.198200E-03    0.999893E+00    0.211837E+01
    0.115315E+01    0.149702E-03    0.999895E+00    0.212738E+01
    0.116216E+01    0.112613E-03    0.999896E+00    0.213639E+01
    0.117117E+01    0.843701E-04    0.999897E+00    0.214540E+01
    0.118018E+01    0.629544E-04    0.999897E+00    0.215441E+01
    0.118919E+01    0.467844E-04    0.999898E+00    0.216341E+01
    0.119820E+01    0.346269E-04    0.999898E+00    0.217242E+01
    0.120721E+01    0.255248E-04    0.999898E+00    0.218143E+01
    0.121622E+01    0.187392E-04    0.999899E+00    0.219044E+01
    0.122523E+01    0.137017E-04    0.999899E+00    0.219945E+01
    0.123423E+01    0.997789E-05    0.999899E+00    0.220845E+01
    0.124324E+01    0.723667E-05    0.999899E+00    0.221746E+01
    0.125225E+01    0.522729E-05    0.999899E+00    0.222647E+01
    0.126126E+01    0.376055E-05    0.999899E+00    0.223548E+01
    0.127027E+01    0.269441E-05    0.999899E+00    0.224449E+01
    0.127928E+01    0.192271E-05    0.999899E+00    0.225349E+01
    0.128829E+01    0.136648E-05    0.999899E+00    0.226250E+01
    0.129730E+01    0.967226E-06    0.999899E+00    0.227151E+01
    0.130631E+01    0.681853E-06    0.999899E+00    0.228052E+01
    0.131532E+01    0.478732E-06    0.999899E+00    0.228953E+01
    0.132432E+01    0.334758E-06    0.999899E+00    0.229854E+01
    0.133333E+01    0.233135E-06    0.999899E+00    0.230754E+01
    0.134234E+01    0.161704E-06    0.999899E+00    0.231655E+01
    0.135135E+01    0.111705E-06    0.999899E+00    0.232556E+01
    0.136036E+01    0.768529E-07    0.999899E+00    0.233457E+01
    0.136937E+01    0.526608E-07    0.999899E+00    0.234358E+01
    0.137838E+01    0.359378E-07    0.999899E+00    0.235258E+01
    0.138739E+01    0.244260E-07    0.999899E+00    0.236159E+01
    0.139640E+01    0.165345E-07    0.999899E+00    0.237060E+01
    0.140541E+01    0.111473E-07    0.999899E+00    0.237961E+01
    0.141441E+01    0.748487E-08    0.999899E+00    0.238862E+01
    0.142342E+01    0.500535E-08    0.999899E+00    0.239762E+01
    0.143243E+01    0.333368E-08    0.999899E+00    0.240663E+01
    0.144144E+01    0.221132E-08    0.999899E+00    0.241564E+01
    0.145045E+01    0.146089E-08    0.999899E+00    0.242465E+01
    0.145946E+01    0.961211E-09    0.999899E+00    0.243366E+01
    0.146847E+01    0.629881E-09    0.999899E+00    0.244266E+01
    0.147748E+01    0.411090E-09    0.999899E+00    0.245167E+01
    0.148649E+01    0.267210E-09    0.999899E+00    0.246068E+01
    0.149550E+01    0.172983E-09    0.999899E+00    0.246969E+01
    0.150450E+01    0.111530E-09    0.999899E+00    0.247870E+01
    0.151351E+01    0.716177E-10    0.999899E+00    0.248771E+01
    0.152252E+01    0.458020E-10    0.999899E+00    0.249671E+01
    0.153153E+01    0.291735E-10    0.999899E+00    0.250572E+01
    0.154054E+01    0.185067E-10    0.999899E+00    0.251473E+01
    0.154955E+01    0.116925E-10    0.999899E+00    0.252374E+01
    0.155856E+01    0.735737E-11    0.999899E+00    0.253275E+01
    0.156757E+01    0.461079E-11    0.999899E+00    0.254175E+01
    0.157658E+01    0.287785E-11    0.999899E+00    0.255076E+01
    0.158559E+01    0.178894E-11    0.999899E+00    0.255977E+01
    0.159459E+01    0.110754E-11    0.999899E+00    0.256878E+01
    0.160360E+01    0.682913E-12    0.999899E+00    0.257779E+01
    0.161261E+01    0.419379E-12    0.999899E+00    0.258679E+01
    0.162162E+01    0.256499E-12    0.999899E+00    0.259580E+01
    0.163063E+01    0.156243E-12    0.999899E+00    0.260481E+01
    0.163964E+01    0.947886E-13    0.999899E+00    0.261382E+01
    0.164865E+01    0.572727E-13    0.999899E+00    0.262283E+01
    0.165766E+01    0.344649E-13    0.999899E+00    0.263184E+01
    0.166667E+01    0.206558E-13    0.999899E+00    0.264084E+01
    0.167568E+01    0.123296E-13    0.999899E+00    0.264985E+01
    0.168468E+01    0.732978E-14    0.999899E+00    0.265886E+01
    0.169369E+01    0.433980E-14    0.999899E+00    0.266787E+01
    0.170270E+01    0.255909E-14    0.999899E+00    0.267688E+01
    0.171171E+01    0.150294E-14    0.999899E+00    0.268588E+01
    0.172072E+01    0.879091E-15    0.999899E+00    0.269489E+01
    0.172973E+01    0.512107E-15    0.999899E+00    0.270390E+01
    0.173874E+01    0.297117E-15    0.999899E+00    0.271291E+01
    0.174775E+01    0.171686E-15    0.999899E+00    0.272192E+01
    0.175676E+01    0.988046E-16    0.999899E+00    0.273092E+01
    0.176577E+01    0.566312E-16    0.999899E+00    0.273993E+01
    0.177477E+01    0.323276E-16    0.999899E+00    0.274894E+01
    0.178378E+01    0.183794E-16    0.999899E+00    0.275795E+01
    0.179279E+01    0.104069E-16    0.999899E+00    0.276696E+01
    0.180180E+01    0.586884E-17    0.999899E+00    0.277596E+01
    0.181081E+01    0.329626E-17    0.999899E+00    0.278497E+01
    0.181982E+01    0.184386E-17    0.999899E+00    0.279398E+01
    0.182883E+01    0.102724E-17    0.999899E+00    0.280299E+01
    0.183784E+01    0.569968E-18    0.999899E+00    0.281200E+01
    0.184685E+01    0.314970E-18    0.999899E+00    0.282101E+01
    0.185586E+01    0.173351E-18    0.999899E+00    0.283001E+01
    0.186486E+01    0.950211E-19    0.999899E+00    0.283902E+01
    0.187387E+01    0.518740E-19    0.999899E+00    0.284803E+01
    0.188288E+01    0.282046E-19    0.999899E+00    0.285704E+01
    0.189189E+01    0.152731E-19    0.999899E+00    0.286605E+01
    0.190090E+01    0.823704E-20    0.999899E+00    0.287505E+01
    0.190991E+01    0.442435E-20    0.999899E+00    0.288406E+01
    0.191892E+01    0.236685E-20    0.999899E+00    0.289307E+01
    0.192793E+01    0.126104E-20    0.999899E+00    0.290208E+01
    0.193694E+01    0.669148E-21    0.999899E+00    0.291109E+01
    0.194595E+01    0.353633E-21    0.999899E+00    0.292009E+01
    0.195495E+01    0.186133E-21    0.999899E+00    0.292910E+01
    0.196396E+01    0.975727E-22    0.999899E+00    0.293811E+01
    0.197297E+01    0.509414E-22    0.999899E+00    0.294712E+01
    0.198198E+01    0.264882E-22    0.999899E+00    0.295613E+01
    0.199099E+01    0.137174E-22    0.999899E+00    0.296513E+01
    0.200000E+01    0.707510E-23    0.999899E+00    0.297414E+01
    0.200901E+01    0.363430E-23    0.999899E+00    0.298315E+01
    0.201802E+01    0.185934E-23    0.999899E+00    0.299216E+01
    0.202703E+01    0.947385E-24    0.999899E+00    0.300117E+01
    0.203604E+01    0.480771E-24    0.999899E+00    0.301018E+01
    0.204505E+01    0.242984E-24    0.999899E+00    0.301918E+01
    0.205405E+01    0.122311E-24    0.999899E+00    0.302819E+01
    0.206306E+01    0.613173E-25    0.999899E+00    0.303720E+01
    0.207207E+01    0.306158E-25    0.999899E+00    0.304621E+01
    0.208108E+01    0.152242E-25    0.999899E+00    0.305522E+01
    0.209009E+01    0.754002E-26    0.999899E+00    0.306422E+01
    0.209910E+01    0.371912E-26    0.999899E+00    0.307323E+01
    0.210811E+01    0.182706E-26    0.999899E+00    0.308224E+01
    0.211712E+01    0.893911E-27    0.999899E+00    0.309125E+01
    0.212613E+01    0.435596E-27    0.999899E+00    0.310026E+01
    0.213514E+01    0.211397E-27    0.999899E+00    0.310926E+01
    0.214414E+01    0.102178E-27    0.999899E+00    0.311827E+01
    0.215315E+01    0.491879E-28    0.999899E+00    0.312728E+01
    0.216216E+01    0.235826E-28    0.999899E+00    0.313629E+01
    0.217117E+01    0.112605E-28    0.999899E+00    0.314530E+01
    0.218018E+01    0.535518E-29    0.999899E+00    0.315430E+01
    0.218919E+01    0.253639E-29    0.999899E+00    0.316331E+01
    0.219820E+01    0.119644E-29    0.999899E+00    0.317232E+01
    0.220721E+01    0.562111E-30    0.999899E+00    0.318133E+01
    0.221622E+01    0.263012E-30    0.999899E+00    0.319034E+01
    0.222523E+01    0.122569E-30    0.999899E+00    0.319935E+01
    0.223423E+01    0.568865E-31    0.999899E+00    0.320835E+01
    0.224324E+01    0.262957E-31    0.999899E+00    0.321736E+01
    0.225225E+01    0.121058E-31    0.999899E+00    0.322637E+01
    0.226126E+01    0.555062E-32    0.999899E+00    0.323538E+01
    0.227027E+01    0.253467E-32    0.999899E+00    0.324439E+01
    0.227928E+01    0.115279E-32    0.999899E+00    0.325339E+01
    0.228829E+01    0.522163E-33    0.999899E+00    0.326240E+01
    0.229730E+01    0.235566E-33    0.999899E+00    0.327141E+01
    0.230631E+01    0.105838E-33    0.999899E+00    0.328042E+01
    0.231532E+01    0.473604E-34    0.999899E+00    0.328943E+01
    0.232432E+01    0.211070E-34    0.999899E+00    0.329843E+01
    0.233333E+01    0.936861E-35    0.999899E+00    0.330744E+01
    0.234234E+01    0.414147E-35    0.999899E+00    0.331645E+01
    0.235135E+01    0.182342E-35    0.999899E+00    0.332546E+01
    0.236036E+01    0.799541E-36    0.999899E+00    0.333447E+01
    0.236937E+01    0.349179E-36    0.999899E+00    0.334347E+01
    0.237838E+01    0.151871E-36    0.999899E+00    0.335248E+01
    0.238739E+01    0.657887E-37    0.999899E+00    0.336149E+01
    0.239640E+01    0.283834E-37    0.999899E+00    0.337050E+01
    0.240541E+01    0.121959E-37    0.999899E+00    0.337951E+01
    0.241441E+01    0.521905E-38    0.999899E+00    0.338852E+01
    0.242342E+01    0.222446E-38    0.999899E+00    0.339752E+01
    0.243243E+01    0.944236E-39    0.999899E+00    0.340653E+01
    0.244144E+01    0.399201E-39    0.999899E+00    0.341554E+01
    0.245045E+01    0.168082E-39    0.999899E+00    0.342455E+01
    0.245946E+01    0.704853E-40    0.999899E+00    0.343356E+01
    0.246847E+01    0.294385E-40    0.999899E+00    0.344256E+01
    0.247748E+01    0.122459E-40    0.999899E+00    0.345157E+01
    0.248649E+01    0.507130E-41    0.999899E+00    0.346058E+01
    0.249550E+01    0.209074E-41    0.999899E+00    0.346959E+01
    0.250450E+01    0.861799E-42    0.999899E+00    0.347860E+01
    0.251351E+01    0.351726E-42    0.999899E+00    0.348760E+01
    0.252252E+01    0.142932E-42    0.999899E+00    0.349661E+01
    0.253153E+01    0.588545E-43    0.999899E+00    0.350562E+01
    0.254054E+01    0.238221E-43    0.999899E+00    0.351463E+01
    0.254955E+01    0.840779E-44    0.999899E+00    0.352364E+01
    0.255856E+01    0.420390E-44    0.999899E+00    0.353265E+01
    0.256757E+01    0.000000E+00    0.999899E+00    0.354165E+01
    0.257658E+01    0.000000E+00    0.999899E+00    0.355066E+01
    0.258559E+01    0.000000E+00    0.999899E+00    0.355967E+01
    0.259459E+01    0.000000E+00    0.999899E+00    0.356868E+01
    0.260360E+01    0.000000E+00    0.999899E+00    0.357769E+01
    0.261261E+01    0.000000E+00    0.999899E+00    0.358669E+01
    0.262162E+01    0.000000E+00    0.999899E+00    0.359570E+01
    0.263063E+01    0.000000E+00    0.999899E+00    0.360471E+01
    0.263964E+01    0.000000E+00    0.999899E+00    0.361372E+01
    0.264865E+01    0.000000E+00    0.999899E+00    0.362273E+01
    0.265766E+01    0.000000E+00    0.999899E+00    0.363173E+01
    0.266667E+01    0.000000E+00    0.999899E+00    0.364074E+01
    0.267568E+01    0.000000E+00    0.999899E+00    0.364975E+01
    0.268468E+01    0.000000E+00    0.999899E+00    0.365876E+01
    0.269369E+01    0.000000E+00    0.999899E+00    0.366777E+01
    0.270270E+01    0.000000E+00    0.999899E+00    0.367677E+01
    0.271171E+01    0.000000E+00    0.999899E+00    0.368578E+01
    0.272072E+01    0.000000E+00    0.999899E+00    0.369479E+01
    0.272973E+01    0.000000E+00    0.999899E+00    0.370380E+01
    0.273874E+01    0.000000E+00    0.999899E+00    0.371281E+01
    0.274775E+01    0.000000E+00    0.999899E+00    0.372181E+01
    0.275676E+01    0.000000E+00    0.999899E+00    0.373082E+01
    0.276577E+01    0.000000E+00    0.999899E+00    0.373983E+01
    0.277477E+01    0.000000E+00    0.999899E+00    0.374884E+01
    0.278378E+01    0.000000E+00    0.999899E+00    0.375785E+01
    0.279279E+01    0.000000E+00    0.999899E+00    0.376686E+01
    0.280180E+01    0.000000E+00    0.999899E+00    0.377586E+01
    0.281081E+01    0.000000E+00    0.999899E+00    0.378487E+01
    0.281982E+01    0.000000E+00    0.999899E+00    0.379388E+01
    0.282883E+01    0.000000E+00    0.999899E+00    0.380289E+01
    0.283784E+01    0.000000E+00    0.999899E+00    0.381190E+01
    0.284685E+01    0.000000E+00    0.999899E+00    0.382090E+01
    0.285586E+01    0.000000E+00    0.999899E+00    0.382991E+01
    0.286486E+01    0.000000E+00    0.999899E+00    0.383892E+01
    0.287387E+01    0.000000E+00    0.999899E+00    0.384793E+01
    0.288288E+01    0.000000E+00    0.999899E+00    0.385694E+01
    0.289189E+01    0.000000E+00    0.999899E+00    0.386594E+01
    0.290090E+01    0.000000E+00    0.999899E+00    0.387495E+01
    0.290991E+01    0.000000E+00    0.999899E+00    0.388396E+01
    0.291892E+01    0.000000E+00    0.999899E+00    0.389297E+01
    0.292793E+01    0.000000E+00    0.999899E+00    0.390198E+01
    0.293694E+01    0.000000E+00    0.999899E+00    0.391099E+01
    0.294595E+01    0.000000E+00    0.999899E+00    0.391999E+01
    0.295495E+01    0.000000E+00    0.999899E+00    0.392900E+01
    0.296396E+01    0.000000E+00    0.999899E+00    0.393801E+01
    0.297297E+01    0.000000E+00    0.999899E+00    0.394702E+01
    0.298198E+01    0.000000E+00    0.999899E+00    0.395603E+01
    0.299099E+01    0.000000E+00    0.999899E+00    0.396503E+01
    0.300000E+01    0.000000E+00    0.999899E+00    0.397404E+01
    0.300901E+01    0.000000E+00    0.999899E+00    0.398305E+01
    0.301802E+01    0.000000E+00    0.999899E+00    0.399206E+01
    0.302703E+01    0.000000E+00    0.999899E+00    0.400107E+01
    0.303604E+01    0.000000E+00    0.999899E+00    0.401007E+01
    0.304505E+01    0.000000E+00    0.999899E+00    0.401908E+01
    0.305405E+01    0.000000E+00    0.999899E+00    0.402809E+01
    0.306306E+01    0.000000E+00    0.999899E+00    0.403710E+01
    0.307207E+01    0.000000E+00    0.999899E+00    0.404611E+01
    0.308108E+01    0.000000E+00    0.999899E+00    0.405512E+01
    0.309009E+01    0.000000E+00    0.999899E+00    0.406412E+01
    0.309910E+01    0.000000E+00    0.999899E+00    0.407313E+01
    0.310811E+01    0.000000E+00    0.999899E+00    0.408214E+01
    0.311712E+01    0.000000E+00    0.999899E+00    0.409115E+01
    0.312613E+01    0.000000E+00    0.999899E+00    0.410016E+01
    0.313514E+01    0.000000E+00    0.999899E+00    0.410916E+01
    0.314414E+01    0.000000E+00    0.999899E+00    0.411817E+01
    0.315315E+01    0.000000E+00    0.999899E+00    0.412718E+01
    0.316216E+01    0.000000E+00    0.999899E+00    0.413619E+01
    0.317117E+01    0.000000E+00    0.999899E+00    0.414520E+01
    0.318018E+01    0.000000E+00    0.999899E+00    0.415420E+01
    0.318919E+01    0.000000E+00    0.999899E+00    0.416321E+01
    0.319820E+01    0.000000E+00    0.999899E+00    0.417222E+01
    0.320721E+01    0.000000E+00    0.999899E+00    0.418123E+01
    0.321622E+01    0.000000E+00    0.999899E+00    0.419024E+01
    0.322523E+01    0.000000E+00    0.999899E+00    0.419924E+01
    0.323423E+01    0.000000E+00    0.999899E+00    0.420825E+01
    0.324324E+01    0.000000E+00    0.999899E+00    0.421726E+01
    0.325225E+01    0.000000E+00    0.999899E+00    0.422627E+01
    0.326126E+01    0.000000E+00    0.999899E+00    0.423528E+01
    0.327027E+01    0.000000E+00    0.999899E+00    0.424429E+01
    0.327928E+01    0.000000E+00    0.999899E+00    0.425329E+01
    0.328829E+01    0.000000E+00    0.999899E+00    0.426230E+01
    0.329730E+01    0.000000E+00    0.999899E+00    0.427131E+01
    0.330631E+01    0.000000E+00    0.999899E+00    0.428032E+01
    0.331532E+01    0.000000E+00    0.999899E+00    0.428933E+01
    0.332432E+01    0.000000E+00    0.999899E+00    0.429833E+01
    0.333333E+01    0.000000E+00    0.999899E+00    0.430734E+01
    0.334234E+01    0.000000E+00    0.999899E+00    0.431635E+01
    0.335135E+01    0.000000E+00    0.999899E+00    0.432536E+01
    0.336036E+01    0.000000E+00    0.999899E+00    0.433437E+01
    0.336937E+01    0.000000E+00    0.999899E+00    0.434337E+01
    0.337838E+01    0.000000E+00    0.999899E+00    0.435238E+01
    0.338739E+01    0.000000E+00    0.999899E+00    0.436139E+01
    0.339640E+01    0.000000E+00    0.999899E+00    0.437040E+01
    0.340541E+01    0.000000E+00    0.999899E+00    0.437941E+01
    0.341441E+01    0.000000E+00    0.999899E+00    0.438841E+01
    0.342342E+01    0.000000E+00    0.999899E+00    0.439742E+01
    0.343243E+01    0.000000E+00    0.999899E+00    0.440643E+01
    0.344144E+01    0.000000E+00    0.999899E+00    0.441544E+01
    0.345045E+01    0.000000E+00    0.999899E+00    0.442445E+01
    0.345946E+01    0.000000E+00    0.999899E+00    0.443346E+01
    0.346847E+01    0.000000E+00    0.999899E+00    0.444246E+01
    0.347748E+01    0.000000E+00    0.999899E+00    0.445147E+01
    0.348649E+01    0.000000E+00    0.999899E+00    0.446048E+01
    0.349550E+01    0.000000E+00    0.999899E+00    0.446949E+01
    0.350450E+01    0.000000E+00    0.999899E+00    0.447850E+01
    0.351351E+01    0.000000E+00    0.999899E+00    0.448750E+01
    0.352252E+01    0.000000E+00    0.999899E+00    0.449651E+01
    0.353153E+01    0.000000E+00    0.999899E+00    0.450552E+01
    0.354054E+01    0.000000E+00    0.999899E+00    0.451453E+01
    0.354955E+01    0.000000E+00    0.999899E+00    0.452354E+01
    0.355856E+01    0.000000E+00    0.999899E+00    0.453254E+01
    0.356757E+01    0.000000E+00    0.999899E+00    0.454155E+01
    0.357658E+01    0.000000E+00    0.999899E+00    0.455056E+01
    0.358559E+01    0.000000E+00    0.999899E+00    0.455957E+01
    0.359459E+01    0.000000E+00    0.999899E+00    0.456858E+01
    0.360360E+01    0.000000E+00    0.999899E+00    0.457758E+01
    0.361261E+01    0.000000E+00    0.999899E+00    0.458659E+01
    0.362162E+01    0.000000E+00    0.999899E+00    0.459560E+01
    0.363063E+01    0.000000E+00    0.999899E+00    0.460461E+01
    0.363964E+01    0.000000E+00    0.999899E+00    0.461362E+01
    0.364865E+01    0.000000E+00    0.999899E+00    0.462263E+01
    0.365766E+01    0.000000E+00    0.999899E+00    0.463163E+01
    0.366667E+01    0.000000E+00    0.999899E+00    0.464064E+01
    0.367568E+01    0.000000E+00    0.999899E+00    0.464965E+01
    0.368468E+01    0.000000E+00    0.999899E+00    0.465866E+01
    0.369369E+01    0.000000E+00    0.999899E+00    0.466767E+01
    0.370270E+01    0.000000E+00    0.999899E+00    0.467667E+01
    0.371171E+01    0.000000E+00    0.999899E+00    0.468568E+01
    0.372072E+01    0.000000E+00    0.999899E+00    0.469469E+01
    0.372973E+01    0.000000E+00    0.999899E+00    0.470370E+01
    0.373874E+01    0.000000E+00    0.999899E+00    0.471271E+01
    0.374775E+01    0.000000E+00    0.999899E+00    0.472171E+01
    0.375676E+01    0.000000E+00    0.999899E+00    0.473072E+01
    0.376577E+01    0.000000E+00    0.999899E+00    0.473973E+01
    0.377477E+01    0.000000E+00    0.999899E+00    0.474874E+01
    0.378378E+01    0.000000E+00    0.999899E+00    0.475775E+01
    0.379279E+01    0.000000E+00    0.999899E+00    0.476675E+01
    0.380180E+01    0.000000E+00    0.999899E+00    0.477576E+01
    0.381081E+01    0.000000E+00    0.999899E+00    0.478477E+01
    0.381982E+01    0.000000E+00    0.999899E+00    0.479378E+01
    0.382883E+01    0.000000E+00    0.999899E+00    0.480279E+01
    0.383784E+01    0.000000E+00    0.999899E+00    0.481180E+01
    0.384685E+01    0.000000E+00    0.999899E+00    0.482080E+01
    0.385586E+01    0.000000E+00    0.999899E+00    0.482981E+01
    0.386486E+01    0.000000E+00    0.999899E+00    0.483882E+01
    0.387387E+01    0.000000E+00    0.999899E+00    0.484783E+01
    0.388288E+01    0.000000E+00    0.999899E+00    0.485684E+01
    0.389189E+01    0.000000E+00    0.999899E+00    0.486584E+01
    0.390090E+01    0.000000E+00    0.999899E+00    0.487485E+01
    0.390991E+01    0.000000E+00    0.999899E+00    0.488386E+01
    0.391892E+01    0.000000E+00    0.999899E+00    0.489287E+01
    0.392793E+01    0.000000E+00    0.999899E+00    0.490188E+01
    0.393694E+01    0.000000E+00    0.999899E+00    0.491088E+01
    0.394595E+01    0.000000E+00    0.999899E+00    0.491989E+01
    0.395496E+01    0.000000E+00    0.999899E+00    0.492890E+01
    0.396396E+01    0.000000E+00    0.999899E+00    0.493791E+01
    0.397297E+01    0.000000E+00    0.999899E+00    0.494692E+01
    0.398198E+01    0.000000E+00    0.999899E+00    0.495593E+01
    0.399099E+01    0.000000E+00    0.999899E+00    0.496493E+01
    0.400000E+01    0.000000E+00    0.999899E+00    0.497394E+01
    0.400901E+01    0.000000E+00    0.999899E+00    0.498295E+01
    0.401802E+01    0.000000E+00    0.999899E+00    0.499196E+01
    0.402703E+01    0.000000E+00    0.999899E+00    0.500097E+01
    0.403604E+01    0.000000E+00    0.999899E+00    0.500997E+01
    0.404504E+01    0.000000E+00    0.999899E+00    0.501898E+01
    0.405405E+01    0.000000E+00    0.999899E+00    0.502799E+01
    0.406306E+01    0.000000E+00    0.999899E+00    0.503700E+01
    0.407207E+01    0.000000E+00    0.999899E+00    0.504601E+01
    0.408108E+01    0.000000E+00    0.999899E+00    0.505501E+01